[{"material_id":"mp-129","pretty_formula":"Mo","spacegroup":{"symprec":0.1,"source":"spglib","symbol":"Im-3m","number":229,"point_group":"m-3m","crystal_system":"cubic","hall":"-I 4 2 3"},"nelements":1,"formation_energy_per_atom":0.0,"e_above_hull":0.0,"volume":15.8916287531,"elasticity":{"G_Reuss":122.0,"G_VRH":124.0,"G_Voigt":127.0,"G_Voigt_Reuss_Hill":124.0,"K_Reuss":262.0,"K_VRH":262.0,"K_Voigt":262.0,"K_Voigt_Reuss_Hill":262.0,"elastic_anisotropy":0.18,"elastic_tensor":[[472.0,158.0,158.0,0.0,0.0,0.0],[158.0,472.0,158.0,0.0,0.0,0.0],[158.0,158.0,472.0,0.0,0.0,0.0],[0.0,0.0,0.0,106.0,0.0,0.0],[0.0,0.0,0.0,0.0,106.0,0.0],[0.0,0.0,0.0,0.0,0.0,106.0]],"homogeneous_poisson":0.3,"poisson_ratio":0.3,"universal_anisotropy":0.18,"elastic_tensor_original":[[471.8357358755,157.6502445334,157.6502445334,0.0,0.0,0.0],[157.6492049109,471.8339155886,157.6492049109,0.0,0.0,0.0],[157.6491074445,157.6491074445,471.8341659051,0.0,0.0,0.0],[0.0001128932,0.0001786532,0.0001482365,106.3874063363,0.0,0.0],[-0.00001874,-0.0000119167,0.00005401,0.0,106.3874429529,0.0],[-0.0000005767,0.0000013833,-0.0000178733,0.0,0.0,106.3874128696]],"compliance_tensor":[[2.5,-0.6,-0.6,0.0,0.0,0.0],[-0.6,2.5,-0.6,0.0,0.0,0.0],[-0.6,-0.6,2.5,0.0,0.0,0.0],[0.0,0.0,0.0,9.4,0.0,0.0],[0.0,0.0,0.0,0.0,9.4,0.0],[0.0,0.0,0.0,0.0,0.0,9.4]],"warnings":[],"nsites":1},"exp":{"tags":["Molybdenum","Disodium tetramolybdate hexahydrate","Molydenum"]},"symmetry_symbol":"Im-3m","elastic_tensor":[[472.0,158.0,158.0,0.0,0.0,0.0],[158.0,472.0,158.0,0.0,0.0,0.0],[158.0,158.0,472.0,0.0,0.0,0.0],[0.0,0.0,0.0,106.0,0.0,0.0],[0.0,0.0,0.0,0.0,106.0,0.0],[0.0,0.0,0.0,0.0,0.0,106.0]],"a_lattice":3.167618,"C11":472.0,"C12":158.0,"C44":106.0},{"material_id":"mp-75","pretty_formula":"Nb","spacegroup":{"symprec":0.1,"source":"spglib","symbol":"Im-3m","number":229,"point_group":"m-3m","crystal_system":"cubic","hall":"-I 4 2 3"},"nelements":1,"formation_energy_per_atom":0.0,"e_above_hull":0.0,"volume":18.3057828187,"elasticity":{"G_Reuss":16.0,"G_VRH":20.0,"G_Voigt":24.0,"G_Voigt_Reuss_Hill":20.0,"K_Reuss":174.0,"K_VRH":174.0,"K_Voigt":174.0,"K_Voigt_Reuss_Hill":174.0,"elastic_anisotropy":2.71,"elastic_tensor":[[233.0,145.0,145.0,0.0,0.0,0.0],[145.0,233.0,145.0,0.0,0.0,0.0],[145.0,145.0,233.0,0.0,0.0,0.0],[0.0,0.0,0.0,11.0,0.0,0.0],[0.0,0.0,0.0,0.0,11.0,0.0],[0.0,0.0,0.0,0.0,0.0,11.0]],"homogeneous_poisson":0.45,"poisson_ratio":0.45,"universal_anisotropy":2.71,"elastic_tensor_original":[[233.0260811259,145.1934924446,145.1934924446,0.0,0.0,0.0],[145.1934311659,233.0246924428,145.1934311659,0.0,0.0,0.0],[145.1902054029,145.1902054029,233.0227370617,0.0,0.0,0.0],[0.000264763,0.0001351765,0.0002276897,10.9542027038,0.0,0.0],[-0.0001185632,-0.0001701231,0.00002506,0.0,10.9540613006,0.0],[-0.0000011467,0.0001415931,0.0000111467,0.0,0.0,10.9541945838]],"compliance_tensor":[[8.2,-3.2,-3.2,0.0,0.0,0.0],[-3.2,8.2,-3.2,0.0,0.0,0.0],[-3.2,-3.2,8.2,0.0,0.0,0.0],[0.0,0.0,0.0,91.3,0.0,0.0],[0.0,0.0,0.0,0.0,91.3,0.0],[0.0,0.0,0.0,0.0,0.0,91.3]],"warnings":[],"nsites":1},"exp":{"tags":["Niobium","Niobium - bcc"]},"symmetry_symbol":"Im-3m","elastic_tensor":[[233.0,145.0,145.0,0.0,0.0,0.0],[145.0,233.0,145.0,0.0,0.0,0.0],[145.0,145.0,233.0,0.0,0.0,0.0],[0.0,0.0,0.0,11.0,0.0,0.0],[0.0,0.0,0.0,0.0,11.0,0.0],[0.0,0.0,0.0,0.0,0.0,11.0]],"a_lattice":3.32052,"C11":233.0,"C12":145.0,"C44":11.0},{"material_id":"mp-50","pretty_formula":"Ta","spacegroup":{"symprec":0.1,"source":"spglib","symbol":"Im-3m","number":229,"point_group":"m-3m","crystal_system":"cubic","hall":"-I 4 2 3"},"nelements":1,"formation_energy_per_atom":0.0,"e_above_hull":0.0,"volume":18.3350389528,"elasticity":{"G_Reuss":62.0,"G_VRH":62.0,"G_Voigt":63.0,"G_Voigt_Reuss_Hill":62.0,"K_Reuss":194.0,"K_VRH":194.0,"K_Voigt":194.0,"K_Voigt_Reuss_Hill":194.0,"elastic_anisotropy":0.07,"elastic_tensor":[[265.0,158.0,158.0,0.0,0.0,0.0],[158.0,265.0,158.0,0.0,0.0,0.0],[158.0,158.0,265.0,0.0,0.0,0.0],[0.0,0.0,0.0,69.0,0.0,0.0],[0.0,0.0,0.0,0.0,69.0,0.0],[0.0,0.0,0.0,0.0,0.0,69.0]],"homogeneous_poisson":0.35,"poisson_ratio":0.35,"universal_anisotropy":0.07,"elastic_tensor_original":[[265.4838332071,157.8125625356,157.8125625356,0.0,0.0,0.0],[157.813736065,265.4828559625,157.813736065,0.0,0.0,0.0],[157.8134369179,157.8134369179,265.4832581222,0.0,0.0,0.0],[0.0001279031,0.0001530197,-0.00000359,68.5530732835,0.0,0.0],[-0.0002064529,-0.0000477099,-0.0000974998,0.0,68.5529823403,0.0],[-0.0001095998,-0.0000687032,0.0000142966,0.0,0.0,68.5529203204]],"compliance_tensor":[[6.8,-2.5,-2.5,0.0,0.0,0.0],[-2.5,6.8,-2.5,0.0,0.0,0.0],[-2.5,-2.5,6.8,0.0,0.0,0.0],[0.0,0.0,0.0,14.6,0.0,0.0],[0.0,0.0,0.0,0.0,14.6,0.0],[0.0,0.0,0.0,0.0,0.0,14.6]],"warnings":[],"nsites":1},"exp":{"tags":["Tantalum","High pressure experimental phase","Tantalum - bcc"]},"symmetry_symbol":"Im-3m","elastic_tensor":[[265.0,158.0,158.0,0.0,0.0,0.0],[158.0,265.0,158.0,0.0,0.0,0.0],[158.0,158.0,265.0,0.0,0.0,0.0],[0.0,0.0,0.0,69.0,0.0,0.0],[0.0,0.0,0.0,0.0,69.0,0.0],[0.0,0.0,0.0,0.0,0.0,69.0]],"a_lattice":3.322288,"C11":265.0,"C12":158.0,"C44":69.0},{"material_id":"mp-146","pretty_formula":"V","spacegroup":{"symprec":0.1,"source":"spglib","symbol":"Im-3m","number":229,"point_group":"m-3m","crystal_system":"cubic","hall":"-I 4 2 3"},"nelements":1,"formation_energy_per_atom":0.0,"e_above_hull":0.0,"volume":13.3995939565,"elasticity":{"G_Reuss":23.0,"G_VRH":30.0,"G_Voigt":38.0,"G_Voigt_Reuss_Hill":30.0,"K_Reuss":179.0,"K_VRH":179.0,"K_Voigt":179.0,"K_Voigt_Reuss_Hill":179.0,"elastic_anisotropy":3.42,"elastic_tensor":[[276.0,131.0,131.0,0.0,0.0,0.0],[131.0,276.0,131.0,0.0,0.0,0.0],[131.0,131.0,276.0,0.0,0.0,0.0],[0.0,0.0,0.0,16.0,0.0,0.0],[0.0,0.0,0.0,0.0,16.0,0.0],[0.0,0.0,0.0,0.0,0.0,16.0]],"homogeneous_poisson":0.42,"poisson_ratio":0.42,"universal_anisotropy":3.42,"elastic_tensor_original":[[275.8428821233,131.2664143862,131.2664143862,0.0,0.0,0.0],[131.2670535418,275.8423063009,131.2670535418,0.0,0.0,0.0],[131.2615729768,131.2615729768,275.8378422052,0.0,0.0,0.0],[0.0000160798,-0.0000157202,0.0000116534,15.5969525556,0.0,0.0],[-0.00001911,0.0000275335,-0.0001551601,0.0,15.5970226022,0.0],[0.000315453,0.0002553264,0.0001147202,0.0,0.0,15.5973641653]],"compliance_tensor":[[5.2,-1.7,-1.7,0.0,0.0,0.0],[-1.7,5.2,-1.7,0.0,0.0,0.0],[-1.7,-1.7,5.2,0.0,0.0,0.0],[0.0,0.0,0.0,64.1,0.0,0.0],[0.0,0.0,0.0,0.0,64.1,0.0],[0.0,0.0,0.0,0.0,0.0,64.1]],"warnings":[],"nsites":1},"exp":{"tags":["Vanadium difluoride","Vanadium","Vandium","Vanadium - bcc","Vanadium hydride (2\/1) - beta"]},"symmetry_symbol":"Im-3m","elastic_tensor":[[276.0,131.0,131.0,0.0,0.0,0.0],[131.0,276.0,131.0,0.0,0.0,0.0],[131.0,131.0,276.0,0.0,0.0,0.0],[0.0,0.0,0.0,16.0,0.0,0.0],[0.0,0.0,0.0,0.0,16.0,0.0],[0.0,0.0,0.0,0.0,0.0,16.0]],"a_lattice":2.992544,"C11":276.0,"C12":131.0,"C44":16.0},{"material_id":"mp-91","pretty_formula":"W","spacegroup":{"symprec":0.1,"source":"spglib","symbol":"Im-3m","number":229,"point_group":"m-3m","crystal_system":"cubic","hall":"-I 4 2 3"},"nelements":1,"formation_energy_per_atom":0.0,"e_above_hull":0.0,"volume":16.1914383986,"elasticity":{"G_Reuss":147.0,"G_VRH":147.0,"G_Voigt":147.0,"G_Voigt_Reuss_Hill":147.0,"K_Reuss":304.0,"K_VRH":304.0,"K_Voigt":304.0,"K_Voigt_Reuss_Hill":304.0,"elastic_anisotropy":0.01,"elastic_tensor":[[510.0,201.0,201.0,0.0,0.0,0.0],[201.0,510.0,201.0,0.0,0.0,0.0],[201.0,201.0,510.0,0.0,0.0,0.0],[0.0,0.0,0.0,143.0,0.0,0.0],[0.0,0.0,0.0,0.0,143.0,0.0],[0.0,0.0,0.0,0.0,0.0,143.0]],"homogeneous_poisson":0.29,"poisson_ratio":0.29,"universal_anisotropy":0.01,"elastic_tensor_original":[[509.8029758847,200.9936239091,200.9936239091,0.0,0.0,0.0],[200.9926430779,509.8003665537,200.9926430779,0.0,0.0,0.0],[200.9951201626,200.9951201626,509.8028419354,0.0,0.0,0.0],[0.0000568667,0.0001225635,-0.0001669902,142.6911425296,0.0,0.0],[-0.0000104369,-0.0000852006,-0.0000477239,0.0,142.6909552522,0.0],[0.0000547037,0.0001392771,0.0001389139,0.0,0.0,142.6910869062]],"compliance_tensor":[[2.5,-0.7,-0.7,0.0,0.0,0.0],[-0.7,2.5,-0.7,0.0,0.0,0.0],[-0.7,-0.7,2.5,0.0,0.0,0.0],[0.0,0.0,0.0,7.0,0.0,0.0],[0.0,0.0,0.0,0.0,7.0,0.0],[0.0,0.0,0.0,0.0,0.0,7.0]],"warnings":[],"nsites":1},"exp":{"tags":["Tungsten - alpha","High pressure experimental phase","Tungsten - HT"]},"symmetry_symbol":"Im-3m","elastic_tensor":[[510.0,201.0,201.0,0.0,0.0,0.0],[201.0,510.0,201.0,0.0,0.0,0.0],[201.0,201.0,510.0,0.0,0.0,0.0],[0.0,0.0,0.0,143.0,0.0,0.0],[0.0,0.0,0.0,0.0,143.0,0.0],[0.0,0.0,0.0,0.0,0.0,143.0]],"a_lattice":3.187414,"C11":510.0,"C12":201.0,"C44":143.0}]